TITLE = "Example 1.4"
VARIABLES = "X", "Y"
ZONE T="line", I=3, J=2, K=1, F=POINT
0 0
4 0
4 4
1 1
3 1
3 3